 Gaussian 09, Revision D.01,
 Gaussian 09:  ES64L-G09RevD.01 24-Apr-2013

 ------------------------
 #t B3LYP/6-311G(d,p) Opt
 ------------------------
 ---
 h2o
 ---
 Symbolic Z-matrix:
 Charge =  0 Multiplicity = 1

 SCF Done:  E(RB3LYP) =  -76.4473531459     A.U. after    9 cycles
 SCF Done:  E(RB3LYP) =  -76.4474459887     A.U. after    7 cycles
 SCF Done:  E(RB3LYP) =  -76.4474479932     A.U. after    6 cycles
 Optimization completed.
    -- Stationary point found.

                         Standard orientation:
 ---------------------------------------------------------------------
 Center     Atomic      Atomic             Coordinates (Angstroms)
 Number     Number       Type             X           Y           Z
 ---------------------------------------------------------------------
      1          1           0        0.756966   -0.474945    0.000000
      2          1           0       -0.756966   -0.474945    0.000000
      3          8           0        0.000000    0.118736    0.000000
 ---------------------------------------------------------------------

 The electronic state is 1-A'.
 Alpha  occ. eigenvalues --  -19.10270  -1.00265  -0.52152  -0.37654  -0.29943
 Alpha virt. eigenvalues --    0.02861   0.10392   0.37817   0.42400   0.75997
 Alpha virt. eigenvalues --    0.76423   0.86215   1.06658   1.23938   1.26846
 Alpha virt. eigenvalues --    1.45880   1.65893   1.92073   2.05072   2.28819

 Mulliken charges:
               1
     1  H    0.236713
     2  H    0.236713
     3  O   -0.473426
 Sum of Mulliken charges =   0.00000

 Dipole moment (field-independent basis, Debye):
    X=              0.0000    Y=             -2.0704    Z=              0.0000  Tot=              2.0704
 1\1\GINC-CPU-G-5\FOpt\RB3LYP\6-311G(d,p)\H2O1\AM2145\17-Jul-2020\0\\#t
  B3LYP/6-311G(d,p) Opt\\h2o\\0,1\H,-1.1655107737,-0.840789623,0.\H,0.3
 483217709,-0.8581388647,0.\O,-0.4017909971,-0.2558215123,0.\\Version=E
 S64L-G09RevD.01\State=1-A'\HF=-76.447448\RMSD=2.701e-09\RMSF=2.917e-05
 \Dipole=-0.0093346,-0.8145011,0.\Quadrupole=1.1395966,-0.1452502,-0.99
 43464,-0.0147268,0.,0.\PG=CS [SG(H2O1)]\\@

 EVERY WORD THAT YOU WRITE IS A BLOW THAT SMITES THE DEVIL.
     -- ST. BERNARD OF CLAIRVAUX

 Normal termination of Gaussian 09 at Fri Jul 17 17:45:52 2020.
